<?xml version="1.0"?>
<VTKFile type="UnstructuredGrid" version="0.1" byte_order="LittleEndian">
<!--This file was created by -->
<UnstructuredGrid>
<Piece NumberOfPoints="16" NumberOfCells="18">
<Points>
<DataArray type="Float64" Name="Points" NumberOfComponents="3" format="ascii">
0.00000000000e+00
0.00000000000e+00
0.00000000000e+00
3.33333333333e-01
0.00000000000e+00
0.00000000000e+00
6.66666666667e-01
0.00000000000e+00
0.00000000000e+00
1.00000000000e+00
0.00000000000e+00
0.00000000000e+00
0.00000000000e+00
3.33333333333e-01
0.00000000000e+00
3.33333333333e-01
3.33333333333e-01
0.00000000000e+00
6.66666666667e-01
3.33333333333e-01
0.00000000000e+00
1.00000000000e+00
3.33333333333e-01
0.00000000000e+00
0.00000000000e+00
6.66666666667e-01
0.00000000000e+00
3.33333333333e-01
6.66666666667e-01
0.00000000000e+00
6.66666666667e-01
6.66666666667e-01
0.00000000000e+00
1.00000000000e+00
6.66666666667e-01
0.00000000000e+00
0.00000000000e+00
1.00000000000e+00
0.00000000000e+00
3.33333333333e-01
1.00000000000e+00
0.00000000000e+00
6.66666666667e-01
1.00000000000e+00
0.00000000000e+00
1.00000000000e+00
1.00000000000e+00
0.00000000000e+00

</DataArray>
</Points>
<Cells>
<DataArray type="Int64" Name="connectivity" format="ascii">
0
1
5
0
4
5
1
2
6
1
5
6
2
3
7
2
6
7
4
5
9
4
8
9
5
6
10
5
9
10
6
7
11
6
10
11
8
9
13
8
12
13
9
10
14
9
13
14
10
11
15
10
14
15

</DataArray>
<DataArray type="Int64" Name="offsets" format="ascii">
3
6
9
12
15
18
21
24
27
30
33
36
39
42
45
48
51
54

</DataArray>
<DataArray type="Int64" Name="types" format="ascii">
5
5
5
5
5
5
5
5
5
5
5
5
5
5
5
5
5
5

</DataArray>
</Cells>
<CellData>
<DataArray type="Float64" Name="cc" NumberOfComponents="3" format="ascii">
2.22222222222e-01
1.11111111111e-01
0.00000000000e+00
1.11111111111e-01
2.22222222222e-01
0.00000000000e+00
5.55555555556e-01
1.11111111111e-01
0.00000000000e+00
4.44444444444e-01
2.22222222222e-01
0.00000000000e+00
8.88888888889e-01
1.11111111111e-01
0.00000000000e+00
7.77777777778e-01
2.22222222222e-01
0.00000000000e+00
2.22222222222e-01
4.44444444444e-01
0.00000000000e+00
1.11111111111e-01
5.55555555556e-01
0.00000000000e+00
5.55555555556e-01
4.44444444444e-01
0.00000000000e+00
4.44444444444e-01
5.55555555556e-01
0.00000000000e+00
8.88888888889e-01
4.44444444444e-01
0.00000000000e+00
7.77777777778e-01
5.55555555556e-01
0.00000000000e+00
2.22222222222e-01
7.77777777778e-01
0.00000000000e+00
1.11111111111e-01
8.88888888889e-01
0.00000000000e+00
5.55555555556e-01
7.77777777778e-01
0.00000000000e+00
4.44444444444e-01
8.88888888889e-01
0.00000000000e+00
8.88888888889e-01
7.77777777778e-01
0.00000000000e+00
7.77777777778e-01
8.88888888889e-01
0.00000000000e+00

</DataArray>
<DataArray type="Int64" Name="cell_id" format="ascii">
0
1
2
3
4
5
6
7
8
9
10
11
12
13
14
15
16
17

</DataArray>
<DataArray type="Int64" Name="grid_dim" format="ascii">
2
2
2
2
2
2
2
2
2
2
2
2
2
2
2
2
2
2

</DataArray>
<DataArray type="Int64" Name="is_mortar" format="ascii">
0
0
0
0
0
0
0
0
0
0
0
0
0
0
0
0
0
0

</DataArray>
<DataArray type="Int64" Name="mortar_side" format="ascii">
0
0
0
0
0
0
0
0
0
0
0
0
0
0
0
0
0
0

</DataArray>
</CellData>
</Piece>
</UnstructuredGrid>
</VTKFile>
